 &FCI NORB=   6,NELEC= 8,MS2=0,
  ORBSYM=1,1,1,1,1,1,
  ISYM=1,
 &END
 0.6558966993609306    1    1    1    1
 -8.866088922967336e-05    2    1    1    1
 0.2483853130287499    2    1    2    1
 0.6539669024012149    2    2    1    1
 6.044065894139639e-05    2    2    2    1
 0.6764160216564268    2    2    2    2
 0.062935726208768    3    1    3    1
 -6.853661921464174e-06    3    2    3    1
 0.04596197408473887    3    2    3    2
 0.5141859640752603    3    3    1    1
 -3.128205169508588e-05    3    3    2    1
 0.5196560938986292    3    3    2    2
 0.4749666845822742    3    3    3    3
 0.06293572620876815    4    1    4    1
 -6.853661921234966e-06    4    2    4    1
 0.04596197408473893    4    2    4    2
 -1.433117857982964e-15    4    3    1    1
 -1.528090517977968e-15    4    3    2    2
 -1.433348467979233e-15    4    3    3    3
 0.01542888641749928    4    3    4    3
 0.5141859640752604    4    4    1    1
 -3.128205169424006e-05    4    4    2    1
 0.5196560938986291    4    4    2    2
 0.4441089117472755    4    4    3    3
 -1.434414103667504e-15    4    4    4    3
 0.4749666845822739    4    4    4    4
 -0.001877520348165132    5    1    3    1
 -6.410250142606251e-07    5    1    3    2
 0.02774513001597604    5    1    4    1
 9.472772096035835e-06    5    1    4    2
 0.04635124501836747    5    1    5    1
 -8.777541586992593e-07    5    2    3    1
 0.000776392093933911    5    2    3    2
 1.297104624138833e-05    5    2    4    1
 -0.01147316438440981    5    2    4    2
 5.350619496605055e-06    5    2    5    1
 0.01833927512296594    5    2    5    2
 -0.003886595869916551    5    3    1    1
 -1.486910927007263e-06    5    3    2    1
 -0.001127430151811349    5    3    2    2
 -0.0004385908935691178    5    3    3    3
 0.000350922958281652    5    3    4    3
 -0.0003910967932038803    5    3    4    4
 0.0128166666952706    5    3    5    3
 0.05743432172960268    5    4    1    1
 2.197288409199193e-05    5    4    2    1
 0.01666064294669733    5    4    2    2
 0.005779448082615518    5    4    3    3
 -2.374705018243943e-05    5    4    4    3
 0.00648129399917904    5    4    4    4
 -0.00644911098756672    5    4    5    3
 0.1076822422455455    5    4    5    4
 0.5625645779282424    5    5    1    1
 -1.012807424004306e-05    5    5    2    1
 0.5435210236864367    5    5    2    2
 0.4656005569880194    5    5    3    3
 -0.002138356378670016    5    5    4    3
 0.4970554984497335    5    5    4    4
 -0.004130639624865655    5    5    5    3
 0.06104068781626981    5    5    5    4
 0.5618875626631655    5    5    5    5
 0.02774513001597607    6    1    3    1
 9.472772096091211e-06    6    1    3    2
 0.001877520348165003    6    1    4    1
 6.410250143000001e-07    6    1    4    2
 0.04635124501836763    6    1    6    1
 1.29710462415125e-05    6    2    3    1
 -0.01147316438440975    6    2    3    2
 8.777541587673499e-07    6    2    4    1
 -0.0007763920939339575    6    2    4    2
 5.350619496605697e-06    6    2    6    1
 0.01833927512296593    6    2    6    2
 0.05743432172960274    6    3    1    1
 2.197288409253631e-05    6    3    2    1
 0.01666064294669746    6    3    2    2
 0.006481293999178925    6    3    3    3
 2.374705018275429e-05    6    3    4    3
 0.005779448082615747    6    3    4    4
 -0.006449110987566687    6    3    5    3
 0.08292173497618349    6    3    5    4
 0.04686134159439214    6    3    5    5
 0.1076822422455451    6    3    6    3
 0.003886595869916483    6    4    1    1
 1.486910927098368e-06    6    4    2    1
 0.00112743015181133    6    4    2    2
 0.0003910967932040044    6    4    3    3
 0.0003509229582816974    6    4    4    3
 0.0004385908935691556    6    4    4    4
 0.0119438405740912    6    4    5    3
 0.006449110987566548    6    4    5    4
 0.003171119484216604    6    4    5    5
 0.006449110987566512    6    4    6    3
 0.01281666669527061    6    4    6    4
 -0.002138356378668671    6    5    3    3
 0.01572747073085698    6    5    4    3
 0.002138356378668662    6    5    4    4
 0.007089673110938908    6    5    5    3
 0.0004797600703242341    6    5    5    4
 -0.0004797600703247451    6    5    6    3
 0.00708967311093892    6    5    6    4
 0.02261777415819407    6    5    6    5
 0.5625645779282427    6    6    1    1
 -1.012807424033398e-05    6    6    2    1
 0.5435210236864368    6    6    2    2
 0.4970554984497332    6    6    3    3
 0.002138356378667316    6    6    4    3
 0.4656005569880192    6    6    4    4
 -0.003171119484216779    6    6    5    3
 0.04686134159439268    6    6    5    4
 0.5166520143467777    6    6    5    5
 0.06104068781627055    6    6    6    3
 0.00413063962486568    6    6    6    4
 0.5618875626631659    6    6    6    6
 -6.060295414284205    1    1  0  0
 0.00013992304265206    2    1  0  0
 -5.40129956807902    2    2  0  0
 -1.196380889200303e-15    3    2  0  0
 -4.025868441028392    3    3  0  0
 -1.410864731513017e-15    4    1  0  0
 1.14798451384226e-15    4    2  0  0
 1.209451326975687e-14    4    3  0  0
 -4.025868441028391    4    4  0  0
 2.588916494787401e-15    5    2  0  0
 0.01012393303854195    5    3  0  0
 -0.1496068144890595    5    4  0  0
 -3.671771477034917    5    5  0  0
 2.241682143848736e-15    6    2  0  0
 -0.149606814489061    6    3  0  0
 -0.01012393303854109    6    4  0  0
 -3.671771477034914    6    6  0  0
 -162.6449083198988  0  0  0  0
