 &FCI NORB=   7,NELEC=11,MS2=1,
  ORBSYM=1,1,1,1,1,1,1,
  ISYM=1,
 &END
 0.6441135284888211    1    1    1    1
 0.0002375586929004572    2    1    1    1
 0.01671919891315886    2    1    2    1
 0.6136788775704362    2    2    1    1
 0.0001534630790357547    2    2    2    1
 0.6608183169116219    2    2    2    2
 0.0002318275004902204    3    1    1    1
 -0.0001273818009999048    3    1    2    1
 0.003799076826431096    3    1    2    2
 0.02296398086156479    3    1    3    1
 0.0002648384125058516    3    2    1    1
 -0.001775742012516445    3    2    2    1
 0.0003816649727660542    3    2    2    2
 -0.0006763613468252863    3    2    3    1
 0.02949717522174769    3    2    3    2
 0.6000051233713988    3    3    1    1
 0.001786083762169194    3    3    2    1
 0.6024681025077183    3    3    2    2
 0.0003570195334746669    3    3    3    1
 0.0004216242964023358    3    3    3    2
 0.660522389804327    3    3    3    3
 0.0009214205171060386    4    1    1    1
 0.002515684761989197    4    1    2    1
 0.0007479456338786571    4    1    2    2
 0.001507872922329189    4    1    3    1
 -0.01259193220247923    4    1    3    2
 0.001722038020810784    4    1    3    3
 0.02788087537080717    4    1    4    1
 -0.00582868885430366    4    2    1    1
 -0.0001488482670150186    4    2    2    1
 -0.0003242306361418383    4    2    2    2
 0.00887269812089956    4    2    3    1
 0.0004931101805974816    4    2    3    2
 8.277563234793334e-05    4    2    3    3
 0.0003111128236769527    4    2    4    1
 0.02868653346060454    4    2    4    2
 -0.00350666570880103    4    3    1    1
 0.003581801198784521    4    3    2    1
 -2.427400259667856e-05    4    3    2    2
 -0.0003882951406725827    4    3    3    1
 0.0005080272004657414    4    3    3    2
 -0.0003437689230757385    4    3    3    3
 0.00128066480904685    4    3    4    1
 0.001584272944119839    4    3    4    2
 0.02864156126856706    4    3    4    3
 0.5882343116022395    4    4    1    1
 -0.00179414336176754    4    4    2    1
 0.6023365111914609    4    4    2    2
 -0.004283830779930461    4    4    3    1
 -0.0008603428051287866    4    4    3    2
 0.6021911024025929    4    4    3    3
 -0.001059416935683999    4    4    4    1
 -0.0009549821267016963    4    4    4    2
 -0.0008216588536687135    4    4    4    3
 0.6599551103839103    4    4    4    4
 -6.162392896301872e-05    5    1    1    1
 -0.0001228695360007651    5    1    2    1
 -0.008287112956224597    5    1    2    2
 0.0004121902903425239    5    1    3    1
 -8.891904938068809e-05    5    1    3    2
 0.01435765019150964    5    1    3    3
 0.000687813230732482    5    1    4    1
 -0.0002618445586477852    5    1    4    2
 -0.005508072047641459    5    1    4    3
 -0.006683737790312102    5    1    4    4
 0.03039836647821703    5    1    5    1
 0.0007763627217401349    5    2    1    1
 0.004190514572468424    5    2    2    1
 0.0004559723792834961    5    2    2    2
 -0.0004721108164787624    5    2    3    1
 0.002212994686209354    5    2    3    2
 0.006211462436124434    5    2    3    3
 0.0005332803438210282    5    2    4    1
 9.378855482093384e-05    5    2    4    2
 0.0118047752847447    5    2    4    3
 -0.007235843382497734    5    2    4    4
 -2.297030682370721e-05    5    2    5    1
 0.03190701357069872    5    2    5    2
 -0.0004070714378857224    5    3    1    1
 0.0004659782044061267    5    3    2    1
 -0.003868266838400936    5    3    2    2
 -0.007237719979866353    5    3    3    1
 -0.003227356414260251    5    3    3    2
 -0.0003562070693547783    5    3    3    3
 0.00221693862212104    5    3    4    1
 -0.008466274827712476    5    3    4    2
 -0.0002165250703489336    5    3    4    3
 0.004791903616381349    5    3    4    4
 -0.0001654890667373209    5    3    5    1
 -0.0007107155694179451    5    3    5    2
 0.02455708355060932    5    3    5    3
 0.0001464166539601781    5    4    1    1
 -0.0003343744356621889    5    4    2    1
 0.001330729150524484    5    4    2    2
 0.003086377431888967    5    4    3    1
 -0.003316804006936923    5    4    3    2
 -0.0005845695714804133    5    4    3    3
 0.003078276897512567    5    4    4    1
 0.003060262820953222    5    4    4    2
 -0.002229327550893741    5    4    4    3
 -0.0002911941392917297    5    4    4    4
 0.0004404994839623058    5    4    5    1
 -0.003058676038620572    5    4    5    2
 -0.001888817397089813    5    4    5    3
 0.01897261782537139    5    4    5    4
 0.5868783070382729    5    5    1    1
 -0.0001983931188437454    5    5    2    1
 0.6006990996402803    5    5    2    2
 -4.146098572854295e-05    5    5    3    1
 0.001740823053106206    5    5    3    2
 0.6143556414724922    5    5    3    3
 -0.001799491785839697    5    5    4    1
 0.005779369878564283    5    5    4    2
 0.003575978457678431    5    5    4    3
 0.6250875399360978    5    5    4    4
 -0.0005903143872108382    5    5    5    1
 -8.001141504926623e-05    5    5    5    2
 -0.0001175211509730229    5    5    5    3
 -0.0003744099973901364    5    5    5    4
 0.6669273425944314    5    5    5    5
 -0.01106390639721479    6    1    1    1
 -0.0002493442098483923    6    1    2    1
 -0.002527238646700855    6    1    2    2
 -0.0008699838401978559    6    1    3    1
 0.001418732006333724    6    1    3    2
 -0.00887022955443198    6    1    3    3
 -0.002096554351712112    6    1    4    1
 0.003677102274622835    6    1    4    2
 0.006092732429223423    6    1    4    3
 0.01453838202837163    6    1    4    4
 -0.01108842875694188    6    1    5    1
 -0.000548792192105007    6    1    5    2
 0.0005376571163703215    6    1    5    3
 -0.0008180552097952964    6    1    5    4
 0.01351546148579349    6    1    5    5
 0.02074886129638373    6    1    6    1
 0.001245445879975931    6    2    1    1
 -0.003238716655315197    6    2    2    1
 0.002968932497726777    6    2    2    2
 0.001862289540216172    6    2    3    1
 -0.005747939472839662    6    2    3    2
 -0.004951642108177631    6    2    3    3
 0.003198224517976289    6    2    4    1
 0.001767881616095271    6    2    4    2
 -0.01133272438485159    6    2    4    3
 0.008157525288826213    6    2    4    4
 -0.0005935198287298362    6    2    5    1
 -0.01533571266326281    6    2    5    2
 0.0004243955716950104    6    2    5    3
 0.004422930638836369    6    2    5    4
 0.0008466553577362387    6    2    5    5
 0.0001958747760177105    6    2    6    1
 0.01383742540479974    6    2    6    2
 0.0008182081694861002    6    3    1    1
 0.001662659296012753    6    3    2    1
 -0.004054628611792961    6    3    2    2
 -0.009180031599149211    6    3    3    1
 -0.006498907470274556    6    3    3    2
 0.003560131506042356    6    3    3    3
 0.005512878603122944    6    3    4    1
 -0.01137828468851911    6    3    4    2
 0.002222697843296392    6    3    4    3
 0.007353793516376874    6    3    4    4
 0.0004548667549239355    6    3    5    1
 0.001242056480562783    6    3    5    2
 0.0114093445175054    6    3    5    3
 -0.002382280398005137    6    3    5    4
 0.00188101740034931    6    3    5    5
 0.0002242209171610597    6    3    6    1
 -0.00123573121853709    6    3    6    2
 0.01407154003205268    6    3    6    3
 0.003441689308987101    6    4    1    1
 0.003283918008090936    6    4    2    1
 0.007450267864291881    6    4    2    2
 0.005510134770002791    6    4    3    1
 -0.01165582710299225    6    4    3    2
 0.007946511965383049    6    4    3    3
 0.01246182080728265    6    4    4    1
 0.006782211929754343    6    4    4    2
 0.005706143726801617    6    4    4    3
 0.005199511287109707    6    4    4    4
 -0.001050258666211069    6    4    5    1
 0.004243883499149779    6    4    5    2
 -0.002210549953272272    6    4    5    3
 0.004008875902459673    6    4    5    4
 0.007760531465841529    6    4    5    5
 0.001002019911349837    6    4    6    1
 0.0004937128812612302    6    4    6    2
 0.0004398518950957889    6    4    6    3
 0.01494917942737763    6    4    6    4
 -0.01102519924877723    6    5    1    1
 -0.000515578465382018    6    5    2    1
 -0.01555689429007312    6    5    2    2
 0.0005289542967028148    6    5    3    1
 0.0006866228046972659    6    5    3    2
 0.01252859172866917    6    5    3    3
 -0.0007320408584993405    6    5    4    1
 0.004569257303688712    6    5    4    2
 -0.002342402420797211    6    5    4    3
 0.004707311931151541    6    5    4    4
 0.01180923718858056    6    5    5    1
 -0.0009417267945641287    6    5    5    2
 -0.0001611626356761479    6    5    5    3
 0.001013290150981175    6    5    5    4
 0.01346973669587325    6    5    5    5
 0.0001525273550334486    6    5    6    1
 2.313829482280442e-05    6    5    6    2
 0.0001507186285909772    6    5    6    3
 0.0004108491939341053    6    5    6    4
 0.01668213245825268    6    5    6    5
 0.3483405294707252    6    6    1    1
 0.0001520521538309807    6    6    2    1
 0.3515767150776289    6    6    2    2
 0.0001725568292069875    6    6    3    1
 -0.0009319464141186988    6    6    3    2
 0.3517492128582515    6    6    3    3
 0.0007741552116275116    6    6    4    1
 0.0004155329302575496    6    6    4    2
 0.000381226184847493    6    6    4    3
 0.3526709521868667    6    6    4    4
 -6.875775756554119e-05    6    6    5    1
 2.622730978940835e-05    6    6    5    2
 9.942574441494659e-05    6    6    5    3
 0.0003003296881773752    6    6    5    4
 0.3555285597714654    6    6    5    5
 0.0009102916174480585    6    6    6    1
 0.0004704104624872248    6    6    6    2
 0.0005448249156054935    6    6    6    3
 0.002067181532523388    6    6    6    4
 0.0002408045033129406    6    6    6    5
 0.299737641166532    6    6    6    6
 -0.0003109903163316184    7    1    1    1
 -4.04229117551245e-05    7    1    2    1
 -0.003340331783981678    7    1    2    2
 0.0001037281953130209    7    1    3    1
 -1.921731365693104e-05    7    1    3    2
 -0.001900306548527463    7    1    3    3
 5.704465745400415e-05    7    1    4    1
 -0.0008957169231567684    7    1    4    2
 -0.00143436610191176    7    1    4    3
 -0.007134101729752334    7    1    4    4
 0.003083795426989727    7    1    5    1
 0.0001075863429787996    7    1    5    2
 -0.0001379218915587743    7    1    5    3
 0.0001067804696363253    7    1    5    4
 -0.007243988567050887    7    1    5    5
 -0.005806985325167711    7    1    6    1
 -0.0001621211185139958    7    1    6    2
 -0.0001736641253875337    7    1    6    3
 -0.0007802621321366416    7    1    6    4
 -2.932892549480158e-08    7    1    6    5
 -0.001530971529831403    7    1    6    6
 0.004327902133058742    7    1    7    1
 -0.002301957507185494    7    2    1    1
 -7.362587896041326e-05    7    2    2    1
 -0.003139530921501339    7    2    2    2
 -0.0004299629193427384    7    2    3    1
 -0.0001274817257477963    7    2    3    2
 -0.002440751609686735    7    2    3    3
 -0.0002285419423813931    7    2    4    1
 -0.001103217182503265    7    2    4    2
 0.0001329951074944781    7    2    4    3
 -0.002605987208109353    7    2    4    4
 0.0001409456841726205    7    2    5    1
 0.0004669915112118648    7    2    5    2
 0.0003812574382758313    7    2    5    3
 -0.000298970529755705    7    2    5    4
 -0.002710819832936459    7    2    5    5
 -0.000172905110192673    7    2    6    1
 0.001558180882653887    7    2    6    2
 0.0007468936806061055    7    2    6    3
 -0.0003958460199251659    7    2    6    4
 -4.405675554959489e-06    7    2    6    5
 -0.001030334598821302    7    2    6    6
 0.0001316237252100901    7    2    7    1
 0.004666792580355777    7    2    7    2
 -0.002473783987660317    7    3    1    1
 -0.000190509260307596    7    3    2    1
 -0.002736757067188458    7    3    2    2
 0.0003663074894492737    7    3    3    1
 -5.891127570425259e-05    7    3    3    2
 -0.003583906020443852    7    3    3    3
 -0.0004900505442576295    7    3    4    1
 0.0001391577410019297    7    3    4    2
 -0.00112207958079933    7    3    4    3
 -0.002915807359888548    7    3    4    4
 -2.274350023223124e-05    7    3    5    1
 -0.0005844750515055641    7    3    5    2
 -0.0004570921443523319    7    3    5    3
 0.0001602089605681464    7    3    5    4
 -0.003161974389073124    7    3    5    5
 -0.0001825594199678759    7    3    6    1
 0.0007448827466278301    7    3    6    2
 0.001495227215401842    7    3    6    3
 -0.0004013288200240537    7    3    6    4
 -0.0001421979338049917    7    3    6    5
 -0.001174558921958841    7    3    6    6
 0.0001425593227092684    7    3    7    1
 -0.000183882927212281    7    3    7    2
 0.004663116715742185    7    3    7    3
 -0.008582329842909157    7    4    1    1
 -0.000334320848221868    7    4    2    1
 -0.009850535244967529    7    4    2    2
 -0.0004931950035100342    7    4    3    1
 0.0008511685266244022    7    4    3    2
 -0.009981698651666758    7    4    3    3
 -0.001696958460002203    7    4    4    1
 -0.0005630382277073191    7    4    4    2
 -0.0005086657123458962    7    4    4    3
 -0.01175292538217162    7    4    4    4
 0.0003152116447395084    7    4    5    1
 -0.000105494159068927    7    4    5    2
 -2.631516761557732e-05    7    4    5    3
 -0.0004402178846126525    7    4    5    4
 -0.01078157428874864    7    4    5    5
 -0.0008889391977279042    7    4    6    1
 -0.000391681056058359    7    4    6    2
 -0.0003969146363846049    7    4    6    3
 0.0004457042839836151    7    4    6    4
 -0.000327019723522664    7    4    6    5
 -0.004265183310446872    7    4    6    6
 0.0007272791867672743    7    4    7    1
 7.93960499988426e-05    7    4    7    2
 8.080643194233829e-05    7    4    7    3
 0.004644436583797634    7    4    7    4
 0.001122219108086044    7    5    1    1
 7.08948481489246e-05    7    5    2    1
 0.001123581892003691    7    5    2    2
 -0.0001290806862438203    7    5    3    1
 5.788591080191732e-05    7    5    3    2
 -0.003024898392802324    7    5    3    3
 -2.838128134025967e-05    7    5    4    1
 -0.0006876806008448412    7    5    4    2
 0.0003001686166751737    7    5    4    3
 -0.00183237670654184    7    5    4    4
 -0.002693522508846774    7    5    5    1
 -5.110379803787249e-05    7    5    5    2
 -0.0001840774934488289    7    5    5    3
 -0.0007989809973499113    7    5    5    4
 -0.003806026943371982    7    5    5    5
 8.992039676080991e-05    7    5    6    1
 -2.273196469701495e-06    7    5    6    2
 -0.0001486954043593795    7    5    6    3
 -0.0003379155553639131    7    5    6    4
 -0.001366972457120027    7    5    6    5
 -0.0003855943000937343    7    5    6    6
 -7.711761505558429e-05    7    5    7    1
 -7.044475857473766e-06    7    5    7    2
 4.601704243534382e-05    7    5    7    3
 0.00012682455103489    7    5    7    4
 0.002847535364083005    7    5    7    5
 -0.004412215252073234    7    6    1    1
 -0.000135542544417788    7    6    2    1
 0.001286129152207083    7    6    2    2
 -0.0001464717852076246    7    6    3    1
 0.0006446301705182439    7    6    3    2
 0.0012213242383044    7    6    3    3
 -0.0006337756299481246    7    6    4    1
 -0.0003509453328059623    7    6    4    2
 -0.0003520702848473086    7    6    4    3
 0.0003470751253902454    7    6    4    4
 0.0001307619267025951    7    6    5    1
 -1.070855475445879e-05    7    6    5    2
 -9.673900371256393e-05    7    6    5    3
 -0.0002358189007573984    7    6    5    4
 -0.0007542536643967947    7    6    5    5
 0.000372970910341695    7    6    6    1
 8.932669951488367e-05    7    6    6    2
 9.38719234264958e-05    7    6    6    3
 0.0002252581101032244    7    6    6    4
 9.724827093164539e-05    7    6    6    5
 -0.007375790619161007    7    6    6    6
 -0.0005550254684088445    7    6    7    1
 9.830565600418037e-05    7    6    7    2
 0.0001173719137154557    7    6    7    3
 0.0005143221752917301    7    6    7    4
 -3.476516824610539e-05    7    6    7    5
 0.01246202907611683    7    6    7    6
 0.3067640534814564    7    7    1    1
 0.0002287170060612049    7    7    2    1
 0.3122967842484435    7    7    2    2
 0.00026035329725891    7    7    3    1
 -0.0009002714429544315    7    7    3    2
 0.3122325480276875    7    7    3    3
 0.001152703059137738    7    7    4    1
 0.0001546485369986832    7    7    4    2
 0.0001393522707608375    7    7    4    3
 0.312040847445443    7    7    4    4
 1.317768030372301e-05    7    7    5    1
 7.567521189804196e-05    7    7    5    2
 5.207238804966595e-05    7    7    5    3
 0.0003001147323246346    7    7    5    4
 0.3123328565388653    7    7    5    5
 -0.001115373261646027    7    7    6    1
 0.0005264593293770022    7    7    6    2
 0.0006037517740259332    7    7    6    3
 0.002192113496177935    7    7    6    4
 -6.624601400501487e-05    7    7    6    5
 0.2744026018746855    7    7    6    6
 -2.836546059839518e-05    7    7    7    1
 -0.0003223958619988799    7    7    7    2
 -0.0003621572017139321    7    7    7    3
 -0.001244230863890951    7    7    7    4
 -0.0002162027014220944    7    7    7    5
 0.0009722675357130015    7    7    7    6
 0.2684082267201577    7    7    7    7
 -12.71913914619708    1    1  0  0
 -0.0007824310522580448    2    1  0  0
 -11.83895056773138    2    2  0  0
 -0.0002839348424190762    3    1  0  0
 -0.001472671522605281    3    2  0  0
 -11.82834316799267    3    3  0  0
 -0.002908226054597676    4    1  0  0
 0.004641250952152553    4    2  0  0
 0.00259606050736615    4    3  0  0
 -11.81400156202428    4    4  0  0
 0.004858365656510324    5    1  0  0
 -0.0007123331254340115    5    2  0  0
 -0.0008104170987041934    5    3  0  0
 -0.002438464931111005    5    4  0  0
 -11.74753857307568    5    5  0  0
 0.0004495543837701684    6    1  0  0
 -0.01442527434062449    6    2  0  0
 -0.01674669630179107    6    3  0  0
 -0.05312707772725401    6    4  0  0
 0.009559069940224348    6    5  0  0
 -5.513960382786625    6    6  0  0
 0.03277360687043262    7    1  0  0
 0.02354190223805507    7    2  0  0
 0.02670706796505781    7    3  0  0
 0.09134729325939105    7    4  0  0
 0.01732268914287401    7    5  0  0
 0.00642332048681983    7    6  0  0
 -3.202720690968762    7    7  0  0
 -2885.478832556892  0  0  0  0
